# LAMMPS data file from: ODAP_charmm.data by /scratch/saeed/MyScripts/converters/codes/convert.py

59 atoms
8 atom types
58 bonds
4 bond types
114 angles
7 angle types
162 dihedrals
7 dihedral types

  -3.399   22.892 xlo xhi
  -1.074    3.074 ylo yhi
  -0.892    2.892 zlo zhi


Masses

1 12.011 # CT3 ODN CT3   ATOM CT3
8 1.008 # HA3 ODN HA3   ATOM HA3
2 12.011 # CT2 ODN CT2   ATOM CT2
3 1.008 # HA2 ODN HA2   ATOM HA2
4 12.011 # CT2 ODN CT2   ATOM CT2
5 1.008 # HA2 ODN HA2   ATOM HA2
6 14.0067 # NH2 ODN NH2   ATOM NH2
7 1.008 # HC ODN HC   ATOM HC

Atoms # full

1 1 1 -0.18 -2.50664460 0.44311630 0.00000000 0 0 0 # CT3
2 1 8 0.06 -2.50664460 1.07416030 0.89243100 0 0 0 # HA3
3 1 8 0.06 -2.50664460 1.07416030 -0.89243100 0 0 0 # HA3
4 1 8 0.06 -3.39907560 -0.18792770 0.00000000 0 0 0 # HA3
5 1 2 -0.12 -1.25332230 -0.44311630 0.00000000 0 0 0 # CT2
6 1 3 0.06 -1.25332230 -1.07416030 -0.89243100 0 0 0 # HA2
7 1 3 0.06 -1.25332230 -1.07416030 0.89243100 0 0 0 # HA2
8 1 2 -0.12 0.00000000 0.44311630 0.00000000 0 0 0 # CT2
9 1 3 0.06 0.00000000 1.07416030 0.89243100 0 0 0 # HA2
10 1 3 0.06 0.00000000 1.07416030 -0.89243100 0 0 0 # HA2
11 1 2 -0.12 1.25332230 -0.44311630 0.00000000 0 0 0 # CT2
12 1 3 0.06 1.25332230 -1.07416030 -0.89243100 0 0 0 # HA2
13 1 3 0.06 1.25332230 -1.07416030 0.89243100 0 0 0 # HA2
14 1 2 -0.12 2.50664460 0.44311630 0.00000000 0 0 0 # CT2
15 1 3 0.06 2.50664460 1.07416030 0.89243100 0 0 0 # HA2
16 1 3 0.06 2.50664460 1.07416030 -0.89243100 0 0 0 # HA2
17 1 2 -0.12 3.75996690 -0.44311630 0.00000000 0 0 0 # CT2
18 1 3 0.06 3.75996690 -1.07416030 -0.89243100 0 0 0 # HA2
19 1 3 0.06 3.75996690 -1.07416030 0.89243100 0 0 0 # HA2
20 1 2 -0.12 5.01328920 0.44311630 0.00000000 0 0 0 # CT2
21 1 3 0.06 5.01328920 1.07416030 0.89243100 0 0 0 # HA2
22 1 3 0.06 5.01328920 1.07416030 -0.89243100 0 0 0 # HA2
23 1 2 -0.12 6.26661150 -0.44311630 0.00000000 0 0 0 # CT2
24 1 3 0.06 6.26661150 -1.07416030 -0.89243100 0 0 0 # HA2
25 1 3 0.06 6.26661150 -1.07416030 0.89243100 0 0 0 # HA2
26 1 2 -0.12 7.51993380 0.44311630 0.00000000 0 0 0 # CT2
27 1 3 0.06 7.51993380 1.07416030 0.89243100 0 0 0 # HA2
28 1 3 0.06 7.51993380 1.07416030 -0.89243100 0 0 0 # HA2
29 1 2 -0.12 8.77325610 -0.44311630 0.00000000 0 0 0 # CT2
30 1 3 0.06 8.77325610 -1.07416030 -0.89243100 0 0 0 # HA2
31 1 3 0.06 8.77325610 -1.07416030 0.89243100 0 0 0 # HA2
32 1 2 -0.12 10.02657840 0.44311630 0.00000000 0 0 0 # CT2
33 1 3 0.06 10.02657840 1.07416030 0.89243100 0 0 0 # HA2
34 1 3 0.06 10.02657840 1.07416030 -0.89243100 0 0 0 # HA2
35 1 2 -0.12 11.27990070 -0.44311630 0.00000000 0 0 0 # CT2
36 1 3 0.06 11.27990070 -1.07416030 -0.89243100 0 0 0 # HA2
37 1 3 0.06 11.27990070 -1.07416030 0.89243100 0 0 0 # HA2
38 1 2 -0.12 12.53322300 0.44311630 0.00000000 0 0 0 # CT2
39 1 3 0.06 12.53322300 1.07416030 0.89243100 0 0 0 # HA2
40 1 3 0.06 12.53322300 1.07416030 -0.89243100 0 0 0 # HA2
41 1 2 -0.12 13.78654530 -0.44311630 0.00000000 0 0 0 # CT2
42 1 3 0.06 13.78654530 -1.07416030 -0.89243100 0 0 0 # HA2
43 1 3 0.06 13.78654530 -1.07416030 0.89243100 0 0 0 # HA2
44 1 2 -0.12 15.03986760 0.44311630 0.00000000 0 0 0 # CT2
45 1 3 0.06 15.03986760 1.07416030 0.89243100 0 0 0 # HA2
46 1 3 0.06 15.03986760 1.07416030 -0.89243100 0 0 0 # HA2
47 1 2 -0.12 16.29318990 -0.44311630 0.00000000 0 0 0 # CT2
48 1 3 0.06 16.29318990 -1.07416030 -0.89243100 0 0 0 # HA2
49 1 3 0.06 16.29318990 -1.07416030 0.89243100 0 0 0 # HA2
50 1 2 -0.12 17.54651220 0.44311630 0.00000000 0 0 0 # CT2
51 1 3 0.06 17.54651220 1.07416030 0.89243100 0 0 0 # HA2
52 1 3 0.06 17.54651220 1.07416030 -0.89243100 0 0 0 # HA2
53 1 4 0.19 18.79983450 -0.44311630 0.00000000 0 0 0 # CT2
54 1 5 0.06 18.79983450 -1.07416030 -0.89243100 0 0 0 # HA2
55 1 5 0.06 18.79983450 -1.07416030 0.89243100 0 0 0 # HA2
56 1 6 -0.3 20.00000000 0.44311630 0.00000000 0 0 0 # NH2
57 1 7 0.33 20.00000000 1.07416030 -0.89243100 0 0 0 # HC
58 1 7 0.33 20.00000000 1.07416030 0.89243100 0 0 0 # HC
59 1 7 0.33 20.89243100 -0.18792770 0.00000000 0 0 0 # HC

Bonds

1 1 1 2 # CT3_HA3 (CT_HA)
2 1 1 3 # CT3_HA3 (CT_HA)
3 1 1 4 # CT3_HA3 (CT_HA)
4 1 5 6 # CT2_HA2 (CT_HA)
5 1 5 7 # CT2_HA2 (CT_HA)
6 1 8 9 # CT2_HA2 (CT_HA)
7 1 8 10 # CT2_HA2 (CT_HA)
8 1 11 12 # CT2_HA2 (CT_HA)
9 1 11 13 # CT2_HA2 (CT_HA)
10 1 14 15 # CT2_HA2 (CT_HA)
11 1 14 16 # CT2_HA2 (CT_HA)
12 1 17 18 # CT2_HA2 (CT_HA)
13 1 17 19 # CT2_HA2 (CT_HA)
14 1 20 21 # CT2_HA2 (CT_HA)
15 1 20 22 # CT2_HA2 (CT_HA)
16 1 23 24 # CT2_HA2 (CT_HA)
17 1 23 25 # CT2_HA2 (CT_HA)
18 1 26 27 # CT2_HA2 (CT_HA)
19 1 26 28 # CT2_HA2 (CT_HA)
20 1 29 30 # CT2_HA2 (CT_HA)
21 1 29 31 # CT2_HA2 (CT_HA)
22 1 32 33 # CT2_HA2 (CT_HA)
23 1 32 34 # CT2_HA2 (CT_HA)
24 1 35 36 # CT2_HA2 (CT_HA)
25 1 35 37 # CT2_HA2 (CT_HA)
26 1 38 39 # CT2_HA2 (CT_HA)
27 1 38 40 # CT2_HA2 (CT_HA)
28 1 41 42 # CT2_HA2 (CT_HA)
29 1 41 43 # CT2_HA2 (CT_HA)
30 1 44 45 # CT2_HA2 (CT_HA)
31 1 44 46 # CT2_HA2 (CT_HA)
32 1 47 48 # CT2_HA2 (CT_HA)
33 1 47 49 # CT2_HA2 (CT_HA)
34 1 50 51 # CT2_HA2 (CT_HA)
35 1 50 52 # CT2_HA2 (CT_HA)
36 1 53 54 # CT2_HA2 (CT_HA)
37 1 53 55 # CT2_HA2 (CT_HA)
38 2 56 57 # NH2_HC (NH_HC)
39 2 56 58 # NH2_HC (NH_HC)
40 2 56 59 # NH2_HC (NH_HC)
41 3 1 5 # CT3_CT2 (CT_CT)
42 3 5 8 # CT2_CT2 (CT_CT)
43 3 8 11 # CT2_CT2 (CT_CT)
44 3 11 14 # CT2_CT2 (CT_CT)
45 3 14 17 # CT2_CT2 (CT_CT)
46 3 17 20 # CT2_CT2 (CT_CT)
47 3 20 23 # CT2_CT2 (CT_CT)
48 3 23 26 # CT2_CT2 (CT_CT)
49 3 26 29 # CT2_CT2 (CT_CT)
50 3 29 32 # CT2_CT2 (CT_CT)
51 3 32 35 # CT2_CT2 (CT_CT)
52 3 35 38 # CT2_CT2 (CT_CT)
53 3 38 41 # CT2_CT2 (CT_CT)
54 3 41 44 # CT2_CT2 (CT_CT)
55 3 44 47 # CT2_CT2 (CT_CT)
56 3 47 50 # CT2_CT2 (CT_CT)
57 3 50 53 # CT2_CT2 (CT_CT)
58 4 53 56 # CT2_NH2 (CT_NH)

Angles

1 1 1 5 8 # CT3_CT2_CT2 (CT_CT_CT)
2 2 50 53 56 # CT2_CT2_NH2 (CT_CT_NH)
3 1 5 8 11 # CT2_CT2_CT2 (CT_CT_CT)
4 1 8 11 14 # CT2_CT2_CT2 (CT_CT_CT)
5 1 11 14 17 # CT2_CT2_CT2 (CT_CT_CT)
6 1 14 17 20 # CT2_CT2_CT2 (CT_CT_CT)
7 1 17 20 23 # CT2_CT2_CT2 (CT_CT_CT)
8 1 20 23 26 # CT2_CT2_CT2 (CT_CT_CT)
9 1 23 26 29 # CT2_CT2_CT2 (CT_CT_CT)
10 1 26 29 32 # CT2_CT2_CT2 (CT_CT_CT)
11 1 29 32 35 # CT2_CT2_CT2 (CT_CT_CT)
12 1 32 35 38 # CT2_CT2_CT2 (CT_CT_CT)
13 1 35 38 41 # CT2_CT2_CT2 (CT_CT_CT)
14 1 38 41 44 # CT2_CT2_CT2 (CT_CT_CT)
15 1 41 44 47 # CT2_CT2_CT2 (CT_CT_CT)
16 1 44 47 50 # CT2_CT2_CT2 (CT_CT_CT)
17 1 47 50 53 # CT2_CT2_CT2 (CT_CT_CT)
18 3 2 1 3 # HA3_CT3_HA3 (HA_CT_HA)
19 3 2 1 4 # HA3_CT3_HA3 (HA_CT_HA)
20 3 3 1 4 # HA3_CT3_HA3 (HA_CT_HA)
21 4 57 56 58 # HC_NH2_HC (HC_NH_HC)
22 4 57 56 59 # HC_NH2_HC (HC_NH_HC)
23 4 58 56 59 # HC_NH2_HC (HC_NH_HC)
24 3 6 5 7 # HA2_CT2_HA2 (HA_CT_HA)
25 3 9 8 10 # HA2_CT2_HA2 (HA_CT_HA)
26 3 12 11 13 # HA2_CT2_HA2 (HA_CT_HA)
27 3 15 14 16 # HA2_CT2_HA2 (HA_CT_HA)
28 3 18 17 19 # HA2_CT2_HA2 (HA_CT_HA)
29 3 21 20 22 # HA2_CT2_HA2 (HA_CT_HA)
30 3 24 23 25 # HA2_CT2_HA2 (HA_CT_HA)
31 3 27 26 28 # HA2_CT2_HA2 (HA_CT_HA)
32 3 30 29 31 # HA2_CT2_HA2 (HA_CT_HA)
33 3 33 32 34 # HA2_CT2_HA2 (HA_CT_HA)
34 3 36 35 37 # HA2_CT2_HA2 (HA_CT_HA)
35 3 39 38 40 # HA2_CT2_HA2 (HA_CT_HA)
36 3 42 41 43 # HA2_CT2_HA2 (HA_CT_HA)
37 3 45 44 46 # HA2_CT2_HA2 (HA_CT_HA)
38 3 48 47 49 # HA2_CT2_HA2 (HA_CT_HA)
39 3 51 50 52 # HA2_CT2_HA2 (HA_CT_HA)
40 3 54 53 55 # HA2_CT2_HA2 (HA_CT_HA)
41 5 1 5 6 # CT3_CT2_HA2 (HA_CT_CT)
42 5 1 5 7 # CT3_CT2_HA2 (HA_CT_CT)
43 6 54 53 56 # HA2_CT2_NH2 (HA_CT_NH)
44 6 55 53 56 # HA2_CT2_NH2 (HA_CT_NH)
45 5 2 1 5 # HA3_CT3_CT2 (HA_CT_CT)
46 5 3 1 5 # HA3_CT3_CT2 (HA_CT_CT)
47 5 4 1 5 # HA3_CT3_CT2 (HA_CT_CT)
48 7 53 56 57 # CT2_NH2_HC (CT_NH_HC)
49 7 53 56 58 # CT2_NH2_HC (CT_NH_HC)
50 7 53 56 59 # CT2_NH2_HC (CT_NH_HC)
51 5 5 8 9 # CT2_CT2_HA2 (HA_CT_CT)
52 5 5 8 10 # CT2_CT2_HA2 (HA_CT_CT)
53 5 6 5 8 # HA2_CT2_CT2 (HA_CT_CT)
54 5 7 5 8 # HA2_CT2_CT2 (HA_CT_CT)
55 5 8 11 12 # CT2_CT2_HA2 (HA_CT_CT)
56 5 8 11 13 # CT2_CT2_HA2 (HA_CT_CT)
57 5 9 8 11 # HA2_CT2_CT2 (HA_CT_CT)
58 5 10 8 11 # HA2_CT2_CT2 (HA_CT_CT)
59 5 11 14 15 # CT2_CT2_HA2 (HA_CT_CT)
60 5 11 14 16 # CT2_CT2_HA2 (HA_CT_CT)
61 5 12 11 14 # HA2_CT2_CT2 (HA_CT_CT)
62 5 13 11 14 # HA2_CT2_CT2 (HA_CT_CT)
63 5 14 17 18 # CT2_CT2_HA2 (HA_CT_CT)
64 5 14 17 19 # CT2_CT2_HA2 (HA_CT_CT)
65 5 15 14 17 # HA2_CT2_CT2 (HA_CT_CT)
66 5 16 14 17 # HA2_CT2_CT2 (HA_CT_CT)
67 5 17 20 21 # CT2_CT2_HA2 (HA_CT_CT)
68 5 17 20 22 # CT2_CT2_HA2 (HA_CT_CT)
69 5 18 17 20 # HA2_CT2_CT2 (HA_CT_CT)
70 5 19 17 20 # HA2_CT2_CT2 (HA_CT_CT)
71 5 20 23 24 # CT2_CT2_HA2 (HA_CT_CT)
72 5 20 23 25 # CT2_CT2_HA2 (HA_CT_CT)
73 5 21 20 23 # HA2_CT2_CT2 (HA_CT_CT)
74 5 22 20 23 # HA2_CT2_CT2 (HA_CT_CT)
75 5 23 26 27 # CT2_CT2_HA2 (HA_CT_CT)
76 5 23 26 28 # CT2_CT2_HA2 (HA_CT_CT)
77 5 24 23 26 # HA2_CT2_CT2 (HA_CT_CT)
78 5 25 23 26 # HA2_CT2_CT2 (HA_CT_CT)
79 5 26 29 30 # CT2_CT2_HA2 (HA_CT_CT)
80 5 26 29 31 # CT2_CT2_HA2 (HA_CT_CT)
81 5 27 26 29 # HA2_CT2_CT2 (HA_CT_CT)
82 5 28 26 29 # HA2_CT2_CT2 (HA_CT_CT)
83 5 29 32 33 # CT2_CT2_HA2 (HA_CT_CT)
84 5 29 32 34 # CT2_CT2_HA2 (HA_CT_CT)
85 5 30 29 32 # HA2_CT2_CT2 (HA_CT_CT)
86 5 31 29 32 # HA2_CT2_CT2 (HA_CT_CT)
87 5 32 35 36 # CT2_CT2_HA2 (HA_CT_CT)
88 5 32 35 37 # CT2_CT2_HA2 (HA_CT_CT)
89 5 33 32 35 # HA2_CT2_CT2 (HA_CT_CT)
90 5 34 32 35 # HA2_CT2_CT2 (HA_CT_CT)
91 5 35 38 39 # CT2_CT2_HA2 (HA_CT_CT)
92 5 35 38 40 # CT2_CT2_HA2 (HA_CT_CT)
93 5 36 35 38 # HA2_CT2_CT2 (HA_CT_CT)
94 5 37 35 38 # HA2_CT2_CT2 (HA_CT_CT)
95 5 38 41 42 # CT2_CT2_HA2 (HA_CT_CT)
96 5 38 41 43 # CT2_CT2_HA2 (HA_CT_CT)
97 5 39 38 41 # HA2_CT2_CT2 (HA_CT_CT)
98 5 40 38 41 # HA2_CT2_CT2 (HA_CT_CT)
99 5 41 44 45 # CT2_CT2_HA2 (HA_CT_CT)
100 5 41 44 46 # CT2_CT2_HA2 (HA_CT_CT)
101 5 42 41 44 # HA2_CT2_CT2 (HA_CT_CT)
102 5 43 41 44 # HA2_CT2_CT2 (HA_CT_CT)
103 5 44 47 48 # CT2_CT2_HA2 (HA_CT_CT)
104 5 44 47 49 # CT2_CT2_HA2 (HA_CT_CT)
105 5 45 44 47 # HA2_CT2_CT2 (HA_CT_CT)
106 5 46 44 47 # HA2_CT2_CT2 (HA_CT_CT)
107 5 47 50 51 # CT2_CT2_HA2 (HA_CT_CT)
108 5 47 50 52 # CT2_CT2_HA2 (HA_CT_CT)
109 5 48 47 50 # HA2_CT2_CT2 (HA_CT_CT)
110 5 49 47 50 # HA2_CT2_CT2 (HA_CT_CT)
111 5 50 53 54 # CT2_CT2_HA2 (HA_CT_CT)
112 5 50 53 55 # CT2_CT2_HA2 (HA_CT_CT)
113 5 51 50 53 # HA2_CT2_CT2 (HA_CT_CT)
114 5 52 50 53 # HA2_CT2_CT2 (HA_CT_CT)

Dihedrals

1 1 1 5 8 11 # CT3_CT2_CT2_CT2 (CT_CT_CT_CT)
2 2 47 50 53 56 # CT2_CT2_CT2_NH2 (CT_CT_CT_NH)
3 1 5 8 11 14 # CT2_CT2_CT2_CT2 (CT_CT_CT_CT)
4 1 8 11 14 17 # CT2_CT2_CT2_CT2 (CT_CT_CT_CT)
5 1 11 14 17 20 # CT2_CT2_CT2_CT2 (CT_CT_CT_CT)
6 1 14 17 20 23 # CT2_CT2_CT2_CT2 (CT_CT_CT_CT)
7 1 17 20 23 26 # CT2_CT2_CT2_CT2 (CT_CT_CT_CT)
8 1 20 23 26 29 # CT2_CT2_CT2_CT2 (CT_CT_CT_CT)
9 1 23 26 29 32 # CT2_CT2_CT2_CT2 (CT_CT_CT_CT)
10 1 26 29 32 35 # CT2_CT2_CT2_CT2 (CT_CT_CT_CT)
11 1 29 32 35 38 # CT2_CT2_CT2_CT2 (CT_CT_CT_CT)
12 1 32 35 38 41 # CT2_CT2_CT2_CT2 (CT_CT_CT_CT)
13 1 35 38 41 44 # CT2_CT2_CT2_CT2 (CT_CT_CT_CT)
14 1 38 41 44 47 # CT2_CT2_CT2_CT2 (CT_CT_CT_CT)
15 1 41 44 47 50 # CT2_CT2_CT2_CT2 (CT_CT_CT_CT)
16 1 44 47 50 53 # CT2_CT2_CT2_CT2 (CT_CT_CT_CT)
17 3 1 5 8 9 # CT3_CT2_CT2_HA2 (CT_CT_CT_HA)
18 3 1 5 8 10 # CT3_CT2_CT2_HA2 (CT_CT_CT_HA)
19 4 51 50 53 56 # HA2_CT2_CT2_NH2 (CT_CT_NH_HA)
20 4 52 50 53 56 # HA2_CT2_CT2_NH2 (CT_CT_NH_HA)
21 3 2 1 5 8 # HA3_CT3_CT2_CT2 (CT_CT_CT_HA)
22 3 3 1 5 8 # HA3_CT3_CT2_CT2 (CT_CT_CT_HA)
23 3 4 1 5 8 # HA3_CT3_CT2_CT2 (CT_CT_CT_HA)
24 5 50 53 56 57 # CT2_CT2_NH2_HC (CT_CT_NH_HC)
25 5 50 53 56 58 # CT2_CT2_NH2_HC (CT_CT_NH_HC)
26 5 50 53 56 59 # CT2_CT2_NH2_HC (CT_CT_NH_HC)
27 3 5 8 11 12 # CT2_CT2_CT2_HA2 (CT_CT_CT_HA)
28 3 5 8 11 13 # CT2_CT2_CT2_HA2 (CT_CT_CT_HA)
29 3 8 11 14 15 # CT2_CT2_CT2_HA2 (CT_CT_CT_HA)
30 3 8 11 14 16 # CT2_CT2_CT2_HA2 (CT_CT_CT_HA)
31 3 6 5 8 11 # HA2_CT2_CT2_CT2 (CT_CT_CT_HA)
32 3 7 5 8 11 # HA2_CT2_CT2_CT2 (CT_CT_CT_HA)
33 3 11 14 17 18 # CT2_CT2_CT2_HA2 (CT_CT_CT_HA)
34 3 11 14 17 19 # CT2_CT2_CT2_HA2 (CT_CT_CT_HA)
35 3 9 8 11 14 # HA2_CT2_CT2_CT2 (CT_CT_CT_HA)
36 3 10 8 11 14 # HA2_CT2_CT2_CT2 (CT_CT_CT_HA)
37 3 14 17 20 21 # CT2_CT2_CT2_HA2 (CT_CT_CT_HA)
38 3 14 17 20 22 # CT2_CT2_CT2_HA2 (CT_CT_CT_HA)
39 3 12 11 14 17 # HA2_CT2_CT2_CT2 (CT_CT_CT_HA)
40 3 13 11 14 17 # HA2_CT2_CT2_CT2 (CT_CT_CT_HA)
41 3 17 20 23 24 # CT2_CT2_CT2_HA2 (CT_CT_CT_HA)
42 3 17 20 23 25 # CT2_CT2_CT2_HA2 (CT_CT_CT_HA)
43 3 15 14 17 20 # HA2_CT2_CT2_CT2 (CT_CT_CT_HA)
44 3 16 14 17 20 # HA2_CT2_CT2_CT2 (CT_CT_CT_HA)
45 3 20 23 26 27 # CT2_CT2_CT2_HA2 (CT_CT_CT_HA)
46 3 20 23 26 28 # CT2_CT2_CT2_HA2 (CT_CT_CT_HA)
47 3 18 17 20 23 # HA2_CT2_CT2_CT2 (CT_CT_CT_HA)
48 3 19 17 20 23 # HA2_CT2_CT2_CT2 (CT_CT_CT_HA)
49 3 23 26 29 30 # CT2_CT2_CT2_HA2 (CT_CT_CT_HA)
50 3 23 26 29 31 # CT2_CT2_CT2_HA2 (CT_CT_CT_HA)
51 3 21 20 23 26 # HA2_CT2_CT2_CT2 (CT_CT_CT_HA)
52 3 22 20 23 26 # HA2_CT2_CT2_CT2 (CT_CT_CT_HA)
53 3 26 29 32 33 # CT2_CT2_CT2_HA2 (CT_CT_CT_HA)
54 3 26 29 32 34 # CT2_CT2_CT2_HA2 (CT_CT_CT_HA)
55 3 24 23 26 29 # HA2_CT2_CT2_CT2 (CT_CT_CT_HA)
56 3 25 23 26 29 # HA2_CT2_CT2_CT2 (CT_CT_CT_HA)
57 3 29 32 35 36 # CT2_CT2_CT2_HA2 (CT_CT_CT_HA)
58 3 29 32 35 37 # CT2_CT2_CT2_HA2 (CT_CT_CT_HA)
59 3 27 26 29 32 # HA2_CT2_CT2_CT2 (CT_CT_CT_HA)
60 3 28 26 29 32 # HA2_CT2_CT2_CT2 (CT_CT_CT_HA)
61 3 32 35 38 39 # CT2_CT2_CT2_HA2 (CT_CT_CT_HA)
62 3 32 35 38 40 # CT2_CT2_CT2_HA2 (CT_CT_CT_HA)
63 3 30 29 32 35 # HA2_CT2_CT2_CT2 (CT_CT_CT_HA)
64 3 31 29 32 35 # HA2_CT2_CT2_CT2 (CT_CT_CT_HA)
65 3 35 38 41 42 # CT2_CT2_CT2_HA2 (CT_CT_CT_HA)
66 3 35 38 41 43 # CT2_CT2_CT2_HA2 (CT_CT_CT_HA)
67 3 33 32 35 38 # HA2_CT2_CT2_CT2 (CT_CT_CT_HA)
68 3 34 32 35 38 # HA2_CT2_CT2_CT2 (CT_CT_CT_HA)
69 3 38 41 44 45 # CT2_CT2_CT2_HA2 (CT_CT_CT_HA)
70 3 38 41 44 46 # CT2_CT2_CT2_HA2 (CT_CT_CT_HA)
71 3 36 35 38 41 # HA2_CT2_CT2_CT2 (CT_CT_CT_HA)
72 3 37 35 38 41 # HA2_CT2_CT2_CT2 (CT_CT_CT_HA)
73 3 41 44 47 48 # CT2_CT2_CT2_HA2 (CT_CT_CT_HA)
74 3 41 44 47 49 # CT2_CT2_CT2_HA2 (CT_CT_CT_HA)
75 3 39 38 41 44 # HA2_CT2_CT2_CT2 (CT_CT_CT_HA)
76 3 40 38 41 44 # HA2_CT2_CT2_CT2 (CT_CT_CT_HA)
77 3 44 47 50 51 # CT2_CT2_CT2_HA2 (CT_CT_CT_HA)
78 3 44 47 50 52 # CT2_CT2_CT2_HA2 (CT_CT_CT_HA)
79 3 42 41 44 47 # HA2_CT2_CT2_CT2 (CT_CT_CT_HA)
80 3 43 41 44 47 # HA2_CT2_CT2_CT2 (CT_CT_CT_HA)
81 3 47 50 53 54 # CT2_CT2_CT2_HA2 (CT_CT_CT_HA)
82 3 47 50 53 55 # CT2_CT2_CT2_HA2 (CT_CT_CT_HA)
83 3 45 44 47 50 # HA2_CT2_CT2_CT2 (CT_CT_CT_HA)
84 3 46 44 47 50 # HA2_CT2_CT2_CT2 (CT_CT_CT_HA)
85 3 48 47 50 53 # HA2_CT2_CT2_CT2 (CT_CT_CT_HA)
86 3 49 47 50 53 # HA2_CT2_CT2_CT2 (CT_CT_CT_HA)
87 6 2 1 5 6 # HA3_CT3_CT2_HA2 (CT_CT_HA_HA)
88 6 2 1 5 7 # HA3_CT3_CT2_HA2 (CT_CT_HA_HA)
89 6 3 1 5 6 # HA3_CT3_CT2_HA2 (CT_CT_HA_HA)
90 6 3 1 5 7 # HA3_CT3_CT2_HA2 (CT_CT_HA_HA)
91 6 4 1 5 6 # HA3_CT3_CT2_HA2 (CT_CT_HA_HA)
92 6 4 1 5 7 # HA3_CT3_CT2_HA2 (CT_CT_HA_HA)
93 7 54 53 56 57 # HA2_CT2_NH2_HC (CT_NH_HA_HC)
94 7 55 53 56 57 # HA2_CT2_NH2_HC (CT_NH_HA_HC)
95 7 54 53 56 58 # HA2_CT2_NH2_HC (CT_NH_HA_HC)
96 7 55 53 56 58 # HA2_CT2_NH2_HC (CT_NH_HA_HC)
97 7 54 53 56 59 # HA2_CT2_NH2_HC (CT_NH_HA_HC)
98 7 55 53 56 59 # HA2_CT2_NH2_HC (CT_NH_HA_HC)
99 6 6 5 8 9 # HA2_CT2_CT2_HA2 (CT_CT_HA_HA)
100 6 6 5 8 10 # HA2_CT2_CT2_HA2 (CT_CT_HA_HA)
101 6 7 5 8 9 # HA2_CT2_CT2_HA2 (CT_CT_HA_HA)
102 6 7 5 8 10 # HA2_CT2_CT2_HA2 (CT_CT_HA_HA)
103 6 9 8 11 12 # HA2_CT2_CT2_HA2 (CT_CT_HA_HA)
104 6 9 8 11 13 # HA2_CT2_CT2_HA2 (CT_CT_HA_HA)
105 6 10 8 11 12 # HA2_CT2_CT2_HA2 (CT_CT_HA_HA)
106 6 10 8 11 13 # HA2_CT2_CT2_HA2 (CT_CT_HA_HA)
107 6 12 11 14 15 # HA2_CT2_CT2_HA2 (CT_CT_HA_HA)
108 6 12 11 14 16 # HA2_CT2_CT2_HA2 (CT_CT_HA_HA)
109 6 13 11 14 15 # HA2_CT2_CT2_HA2 (CT_CT_HA_HA)
110 6 13 11 14 16 # HA2_CT2_CT2_HA2 (CT_CT_HA_HA)
111 6 15 14 17 18 # HA2_CT2_CT2_HA2 (CT_CT_HA_HA)
112 6 15 14 17 19 # HA2_CT2_CT2_HA2 (CT_CT_HA_HA)
113 6 16 14 17 18 # HA2_CT2_CT2_HA2 (CT_CT_HA_HA)
114 6 16 14 17 19 # HA2_CT2_CT2_HA2 (CT_CT_HA_HA)
115 6 18 17 20 21 # HA2_CT2_CT2_HA2 (CT_CT_HA_HA)
116 6 18 17 20 22 # HA2_CT2_CT2_HA2 (CT_CT_HA_HA)
117 6 19 17 20 21 # HA2_CT2_CT2_HA2 (CT_CT_HA_HA)
118 6 19 17 20 22 # HA2_CT2_CT2_HA2 (CT_CT_HA_HA)
119 6 21 20 23 24 # HA2_CT2_CT2_HA2 (CT_CT_HA_HA)
120 6 21 20 23 25 # HA2_CT2_CT2_HA2 (CT_CT_HA_HA)
121 6 22 20 23 24 # HA2_CT2_CT2_HA2 (CT_CT_HA_HA)
122 6 22 20 23 25 # HA2_CT2_CT2_HA2 (CT_CT_HA_HA)
123 6 24 23 26 27 # HA2_CT2_CT2_HA2 (CT_CT_HA_HA)
124 6 24 23 26 28 # HA2_CT2_CT2_HA2 (CT_CT_HA_HA)
125 6 25 23 26 27 # HA2_CT2_CT2_HA2 (CT_CT_HA_HA)
126 6 25 23 26 28 # HA2_CT2_CT2_HA2 (CT_CT_HA_HA)
127 6 27 26 29 30 # HA2_CT2_CT2_HA2 (CT_CT_HA_HA)
128 6 27 26 29 31 # HA2_CT2_CT2_HA2 (CT_CT_HA_HA)
129 6 28 26 29 30 # HA2_CT2_CT2_HA2 (CT_CT_HA_HA)
130 6 28 26 29 31 # HA2_CT2_CT2_HA2 (CT_CT_HA_HA)
131 6 30 29 32 33 # HA2_CT2_CT2_HA2 (CT_CT_HA_HA)
132 6 30 29 32 34 # HA2_CT2_CT2_HA2 (CT_CT_HA_HA)
133 6 31 29 32 33 # HA2_CT2_CT2_HA2 (CT_CT_HA_HA)
134 6 31 29 32 34 # HA2_CT2_CT2_HA2 (CT_CT_HA_HA)
135 6 33 32 35 36 # HA2_CT2_CT2_HA2 (CT_CT_HA_HA)
136 6 33 32 35 37 # HA2_CT2_CT2_HA2 (CT_CT_HA_HA)
137 6 34 32 35 36 # HA2_CT2_CT2_HA2 (CT_CT_HA_HA)
138 6 34 32 35 37 # HA2_CT2_CT2_HA2 (CT_CT_HA_HA)
139 6 36 35 38 39 # HA2_CT2_CT2_HA2 (CT_CT_HA_HA)
140 6 36 35 38 40 # HA2_CT2_CT2_HA2 (CT_CT_HA_HA)
141 6 37 35 38 39 # HA2_CT2_CT2_HA2 (CT_CT_HA_HA)
142 6 37 35 38 40 # HA2_CT2_CT2_HA2 (CT_CT_HA_HA)
143 6 39 38 41 42 # HA2_CT2_CT2_HA2 (CT_CT_HA_HA)
144 6 39 38 41 43 # HA2_CT2_CT2_HA2 (CT_CT_HA_HA)
145 6 40 38 41 42 # HA2_CT2_CT2_HA2 (CT_CT_HA_HA)
146 6 40 38 41 43 # HA2_CT2_CT2_HA2 (CT_CT_HA_HA)
147 6 42 41 44 45 # HA2_CT2_CT2_HA2 (CT_CT_HA_HA)
148 6 42 41 44 46 # HA2_CT2_CT2_HA2 (CT_CT_HA_HA)
149 6 43 41 44 45 # HA2_CT2_CT2_HA2 (CT_CT_HA_HA)
150 6 43 41 44 46 # HA2_CT2_CT2_HA2 (CT_CT_HA_HA)
151 6 45 44 47 48 # HA2_CT2_CT2_HA2 (CT_CT_HA_HA)
152 6 45 44 47 49 # HA2_CT2_CT2_HA2 (CT_CT_HA_HA)
153 6 46 44 47 48 # HA2_CT2_CT2_HA2 (CT_CT_HA_HA)
154 6 46 44 47 49 # HA2_CT2_CT2_HA2 (CT_CT_HA_HA)
155 6 48 47 50 51 # HA2_CT2_CT2_HA2 (CT_CT_HA_HA)
156 6 48 47 50 52 # HA2_CT2_CT2_HA2 (CT_CT_HA_HA)
157 6 49 47 50 51 # HA2_CT2_CT2_HA2 (CT_CT_HA_HA)
158 6 49 47 50 52 # HA2_CT2_CT2_HA2 (CT_CT_HA_HA)
159 6 51 50 53 54 # HA2_CT2_CT2_HA2 (CT_CT_HA_HA)
160 6 51 50 53 55 # HA2_CT2_CT2_HA2 (CT_CT_HA_HA)
161 6 52 50 53 54 # HA2_CT2_CT2_HA2 (CT_CT_HA_HA)
162 6 52 50 53 55 # HA2_CT2_CT2_HA2 (CT_CT_HA_HA)

