# LAMMPS data file from: system_clean.data by /scratch/saeed/MyScripts/converters/codes/convert.py

59 atoms
7 atom types
58 bonds
4 bond types
114 angles
7 angle types
162 dihedrals
7 dihedral types

  -3.399   26.000 xlo xhi
  -1.074    3.074 ylo yhi
  -0.892    2.892 zlo zhi


Masses

1 12.011 # CH3 ct
2 12.011 # CH2 ct
3 1.008 # HC hc
4 12.011 # CT ct
5 1.008 # HCN hc
6 14.0067 # NT nt
7 1.008 # HN hn

Atoms # full

1	1	1	-0.18	-2.5066446	0.4431163	0	0	0	0	#	CH3
2	1	3	0.06	-2.5066446	1.0741603	0.892431	0	0	0	#	HC
3	1	3	0.06	-2.5066446	1.0741603	-0.892431	0	0	0	#	HC
4	1	3	0.06	-3.3990756	-0.1879277	0	0	0	0	#	HC
5	1	2	-0.12	-1.2533223	-0.4431163	0	0	0	0	#	CH2
6	1	3	0.06	-1.2533223	-1.0741603	-0.892431	0	0	0	#	HC
7	1	3	0.06	-1.2533223	-1.0741603	0.892431	0	0	0	#	HC
8	1	2	-0.12	0	0.4431163	0	0	0	0	#	CH2
9	1	3	0.06	0	1.0741603	0.892431	0	0	0	#	HC
10	1	3	0.06	0	1.0741603	-0.892431	0	0	0	#	HC
11	1	2	-0.12	1.2533223	-0.4431163	0	0	0	0	#	CH2
12	1	3	0.06	1.2533223	-1.0741603	-0.892431	0	0	0	#	HC
13	1	3	0.06	1.2533223	-1.0741603	0.892431	0	0	0	#	HC
14	1	2	-0.12	2.5066446	0.4431163	0	0	0	0	#	CH2
15	1	3	0.06	2.5066446	1.0741603	0.892431	0	0	0	#	HC
16	1	3	0.06	2.5066446	1.0741603	-0.892431	0	0	0	#	HC
17	1	2	-0.12	3.7599669	-0.4431163	0	0	0	0	#	CH2
18	1	3	0.06	3.7599669	-1.0741603	-0.892431	0	0	0	#	HC
19	1	3	0.06	3.7599669	-1.0741603	0.892431	0	0	0	#	HC
20	1	2	-0.12	5.0132892	0.4431163	0	0	0	0	#	CH2
21	1	3	0.06	5.0132892	1.0741603	0.892431	0	0	0	#	HC
22	1	3	0.06	5.0132892	1.0741603	-0.892431	0	0	0	#	HC
23	1	2	-0.12	6.2666115	-0.4431163	0	0	0	0	#	CH2
24	1	3	0.06	6.2666115	-1.0741603	-0.892431	0	0	0	#	HC
25	1	3	0.06	6.2666115	-1.0741603	0.892431	0	0	0	#	HC
26	1	2	-0.12	7.5199338	0.4431163	0	0	0	0	#	CH2
27	1	3	0.06	7.5199338	1.0741603	0.892431	0	0	0	#	HC
28	1	3	0.06	7.5199338	1.0741603	-0.892431	0	0	0	#	HC
29	1	2	-0.12	8.7732561	-0.4431163	0	0	0	0	#	CH2
30	1	3	0.06	8.7732561	-1.0741603	-0.892431	0	0	0	#	HC
31	1	3	0.06	8.7732561	-1.0741603	0.892431	0	0	0	#	HC
32	1	2	-0.12	10.0265784	0.4431163	0	0	0	0	#	CH2
33	1	3	0.06	10.0265784	1.0741603	0.892431	0	0	0	#	HC
34	1	3	0.06	10.0265784	1.0741603	-0.892431	0	0	0	#	HC
35	1	2	-0.12	11.2799007	-0.4431163	0	0	0	0	#	CH2
36	1	3	0.06	11.2799007	-1.0741603	-0.892431	0	0	0	#	HC
37	1	3	0.06	11.2799007	-1.0741603	0.892431	0	0	0	#	HC
38	1	2	-0.12	12.533223	0.4431163	0	0	0	0	#	CH2
39	1	3	0.06	12.533223	1.0741603	0.892431	0	0	0	#	HC
40	1	3	0.06	12.533223	1.0741603	-0.892431	0	0	0	#	HC
41	1	2	-0.12	13.7865453	-0.4431163	0	0	0	0	#	CH2
42	1	3	0.06	13.7865453	-1.0741603	-0.892431	0	0	0	#	HC
43	1	3	0.06	13.7865453	-1.0741603	0.892431	0	0	0	#	HC
44	1	2	-0.12	15.0398676	0.4431163	0	0	0	0	#	CH2
45	1	3	0.06	15.0398676	1.0741603	0.892431	0	0	0	#	HC
46	1	3	0.06	15.0398676	1.0741603	-0.892431	0	0	0	#	HC
47	1	2	-0.12	16.2931899	-0.4431163	0	0	0	0	#	CH2
48	1	3	0.06	16.2931899	-1.0741603	-0.892431	0	0	0	#	HC
49	1	3	0.06	16.2931899	-1.0741603	0.892431	0	0	0	#	HC
50	1	2	-0.12	17.5465122	0.4431163	0	0	0	0	#	CH2
51	1	3	0.06	17.5465122	1.0741603	0.892431	0	0	0	#	HC
52	1	3	0.06	17.5465122	1.0741603	-0.892431	0	0	0	#	HC
53	1	4	0.19	18.7998345	-0.4431163	0	0	0	0	#	CT
54	1	5	0.06	18.7998345	-1.0741603	-0.892431	0	0	0	#	HCN
55	1	5	0.06	18.7998345	-1.0741603	0.892431	0	0	0	#	HCN
56	1	6	-0.3	20	0.4431163	0	0	0	0	#	NT
57	1	7	0.33	20	1.0741603	-0.892431	0	0	0	#	HN
58	1	7	0.33	20	1.0741603	0.892431	0	0	0	#	HN
59	1	7	0.33	20.892431	-0.1879277	0	0	0	0	#	HN

Bonds

1 1 1 2 # CH3_HC (ct_hc)
2 1 1 3 # CH3_HC (ct_hc)
3 1 1 4 # CH3_HC (ct_hc)
4 1 5 6 # CH2_HC (ct_hc)
5 1 5 7 # CH2_HC (ct_hc)
6 1 8 9 # CH2_HC (ct_hc)
7 1 8 10 # CH2_HC (ct_hc)
8 1 11 12 # CH2_HC (ct_hc)
9 1 11 13 # CH2_HC (ct_hc)
10 1 14 15 # CH2_HC (ct_hc)
11 1 14 16 # CH2_HC (ct_hc)
12 1 17 18 # CH2_HC (ct_hc)
13 1 17 19 # CH2_HC (ct_hc)
14 1 20 21 # CH2_HC (ct_hc)
15 1 20 22 # CH2_HC (ct_hc)
16 1 23 24 # CH2_HC (ct_hc)
17 1 23 25 # CH2_HC (ct_hc)
18 1 26 27 # CH2_HC (ct_hc)
19 1 26 28 # CH2_HC (ct_hc)
20 1 29 30 # CH2_HC (ct_hc)
21 1 29 31 # CH2_HC (ct_hc)
22 1 32 33 # CH2_HC (ct_hc)
23 1 32 34 # CH2_HC (ct_hc)
24 1 35 36 # CH2_HC (ct_hc)
25 1 35 37 # CH2_HC (ct_hc)
26 1 38 39 # CH2_HC (ct_hc)
27 1 38 40 # CH2_HC (ct_hc)
28 1 41 42 # CH2_HC (ct_hc)
29 1 41 43 # CH2_HC (ct_hc)
30 1 44 45 # CH2_HC (ct_hc)
31 1 44 46 # CH2_HC (ct_hc)
32 1 47 48 # CH2_HC (ct_hc)
33 1 47 49 # CH2_HC (ct_hc)
34 1 50 51 # CH2_HC (ct_hc)
35 1 50 52 # CH2_HC (ct_hc)
36 1 53 54 # CT_HCN (ct_hc)
37 1 53 55 # CT_HCN (ct_hc)
38 2 56 57 # NT_HN (nt_hn)
39 2 56 58 # NT_HN (nt_hn)
40 2 56 59 # NT_HN (nt_hn)
41 3 1 5 # CH3_CH2 (ct_ct)
42 3 5 8 # CH2_CH2 (ct_ct)
43 3 8 11 # CH2_CH2 (ct_ct)
44 3 11 14 # CH2_CH2 (ct_ct)
45 3 14 17 # CH2_CH2 (ct_ct)
46 3 17 20 # CH2_CH2 (ct_ct)
47 3 20 23 # CH2_CH2 (ct_ct)
48 3 23 26 # CH2_CH2 (ct_ct)
49 3 26 29 # CH2_CH2 (ct_ct)
50 3 29 32 # CH2_CH2 (ct_ct)
51 3 32 35 # CH2_CH2 (ct_ct)
52 3 35 38 # CH2_CH2 (ct_ct)
53 3 38 41 # CH2_CH2 (ct_ct)
54 3 41 44 # CH2_CH2 (ct_ct)
55 3 44 47 # CH2_CH2 (ct_ct)
56 3 47 50 # CH2_CH2 (ct_ct)
57 3 50 53 # CH2_CT (ct_ct)
58 4 53 56 # CT_NT (ct_nt)

Angles

1 1 1 5 8 # CH3_CH2_CH2 (ct_ct_ct)
2 2 50 53 56 # CH2_CT_NT (ct_ct_nt)
3 1 5 8 11 # CH2_CH2_CH2 (ct_ct_ct)
4 1 8 11 14 # CH2_CH2_CH2 (ct_ct_ct)
5 1 11 14 17 # CH2_CH2_CH2 (ct_ct_ct)
6 1 14 17 20 # CH2_CH2_CH2 (ct_ct_ct)
7 1 17 20 23 # CH2_CH2_CH2 (ct_ct_ct)
8 1 20 23 26 # CH2_CH2_CH2 (ct_ct_ct)
9 1 23 26 29 # CH2_CH2_CH2 (ct_ct_ct)
10 1 26 29 32 # CH2_CH2_CH2 (ct_ct_ct)
11 1 29 32 35 # CH2_CH2_CH2 (ct_ct_ct)
12 1 32 35 38 # CH2_CH2_CH2 (ct_ct_ct)
13 1 35 38 41 # CH2_CH2_CH2 (ct_ct_ct)
14 1 38 41 44 # CH2_CH2_CH2 (ct_ct_ct)
15 1 41 44 47 # CH2_CH2_CH2 (ct_ct_ct)
16 1 44 47 50 # CH2_CH2_CH2 (ct_ct_ct)
17 1 47 50 53 # CH2_CH2_CT (ct_ct_ct)
18 3 2 1 3 # HC_CH3_HC (hc_ct_hc)
19 3 2 1 4 # HC_CH3_HC (hc_ct_hc)
20 3 3 1 4 # HC_CH3_HC (hc_ct_hc)
21 4 57 56 58 # HN_NT_HN (hn_nt_hn)
22 4 57 56 59 # HN_NT_HN (hn_nt_hn)
23 4 58 56 59 # HN_NT_HN (hn_nt_hn)
24 3 6 5 7 # HC_CH2_HC (hc_ct_hc)
25 3 9 8 10 # HC_CH2_HC (hc_ct_hc)
26 3 12 11 13 # HC_CH2_HC (hc_ct_hc)
27 3 15 14 16 # HC_CH2_HC (hc_ct_hc)
28 3 18 17 19 # HC_CH2_HC (hc_ct_hc)
29 3 21 20 22 # HC_CH2_HC (hc_ct_hc)
30 3 24 23 25 # HC_CH2_HC (hc_ct_hc)
31 3 27 26 28 # HC_CH2_HC (hc_ct_hc)
32 3 30 29 31 # HC_CH2_HC (hc_ct_hc)
33 3 33 32 34 # HC_CH2_HC (hc_ct_hc)
34 3 36 35 37 # HC_CH2_HC (hc_ct_hc)
35 3 39 38 40 # HC_CH2_HC (hc_ct_hc)
36 3 42 41 43 # HC_CH2_HC (hc_ct_hc)
37 3 45 44 46 # HC_CH2_HC (hc_ct_hc)
38 3 48 47 49 # HC_CH2_HC (hc_ct_hc)
39 3 51 50 52 # HC_CH2_HC (hc_ct_hc)
40 3 54 53 55 # HCN_CT_HCN (hc_ct_hc)
41 5 1 5 6 # CH3_CH2_HC (hc_ct_ct)
42 5 1 5 7 # CH3_CH2_HC (hc_ct_ct)
43 6 54 53 56 # HCN_CT_NT (hc_ct_nt)
44 6 55 53 56 # HCN_CT_NT (hc_ct_nt)
45 5 2 1 5 # HC_CH3_CH2 (hc_ct_ct)
46 5 3 1 5 # HC_CH3_CH2 (hc_ct_ct)
47 5 4 1 5 # HC_CH3_CH2 (hc_ct_ct)
48 7 53 56 57 # CT_NT_HN (ct_nt_hn)
49 7 53 56 58 # CT_NT_HN (ct_nt_hn)
50 7 53 56 59 # CT_NT_HN (ct_nt_hn)
51 5 5 8 9 # CH2_CH2_HC (hc_ct_ct)
52 5 5 8 10 # CH2_CH2_HC (hc_ct_ct)
53 5 6 5 8 # HC_CH2_CH2 (hc_ct_ct)
54 5 7 5 8 # HC_CH2_CH2 (hc_ct_ct)
55 5 8 11 12 # CH2_CH2_HC (hc_ct_ct)
56 5 8 11 13 # CH2_CH2_HC (hc_ct_ct)
57 5 9 8 11 # HC_CH2_CH2 (hc_ct_ct)
58 5 10 8 11 # HC_CH2_CH2 (hc_ct_ct)
59 5 11 14 15 # CH2_CH2_HC (hc_ct_ct)
60 5 11 14 16 # CH2_CH2_HC (hc_ct_ct)
61 5 12 11 14 # HC_CH2_CH2 (hc_ct_ct)
62 5 13 11 14 # HC_CH2_CH2 (hc_ct_ct)
63 5 14 17 18 # CH2_CH2_HC (hc_ct_ct)
64 5 14 17 19 # CH2_CH2_HC (hc_ct_ct)
65 5 15 14 17 # HC_CH2_CH2 (hc_ct_ct)
66 5 16 14 17 # HC_CH2_CH2 (hc_ct_ct)
67 5 17 20 21 # CH2_CH2_HC (hc_ct_ct)
68 5 17 20 22 # CH2_CH2_HC (hc_ct_ct)
69 5 18 17 20 # HC_CH2_CH2 (hc_ct_ct)
70 5 19 17 20 # HC_CH2_CH2 (hc_ct_ct)
71 5 20 23 24 # CH2_CH2_HC (hc_ct_ct)
72 5 20 23 25 # CH2_CH2_HC (hc_ct_ct)
73 5 21 20 23 # HC_CH2_CH2 (hc_ct_ct)
74 5 22 20 23 # HC_CH2_CH2 (hc_ct_ct)
75 5 23 26 27 # CH2_CH2_HC (hc_ct_ct)
76 5 23 26 28 # CH2_CH2_HC (hc_ct_ct)
77 5 24 23 26 # HC_CH2_CH2 (hc_ct_ct)
78 5 25 23 26 # HC_CH2_CH2 (hc_ct_ct)
79 5 26 29 30 # CH2_CH2_HC (hc_ct_ct)
80 5 26 29 31 # CH2_CH2_HC (hc_ct_ct)
81 5 27 26 29 # HC_CH2_CH2 (hc_ct_ct)
82 5 28 26 29 # HC_CH2_CH2 (hc_ct_ct)
83 5 29 32 33 # CH2_CH2_HC (hc_ct_ct)
84 5 29 32 34 # CH2_CH2_HC (hc_ct_ct)
85 5 30 29 32 # HC_CH2_CH2 (hc_ct_ct)
86 5 31 29 32 # HC_CH2_CH2 (hc_ct_ct)
87 5 32 35 36 # CH2_CH2_HC (hc_ct_ct)
88 5 32 35 37 # CH2_CH2_HC (hc_ct_ct)
89 5 33 32 35 # HC_CH2_CH2 (hc_ct_ct)
90 5 34 32 35 # HC_CH2_CH2 (hc_ct_ct)
91 5 35 38 39 # CH2_CH2_HC (hc_ct_ct)
92 5 35 38 40 # CH2_CH2_HC (hc_ct_ct)
93 5 36 35 38 # HC_CH2_CH2 (hc_ct_ct)
94 5 37 35 38 # HC_CH2_CH2 (hc_ct_ct)
95 5 38 41 42 # CH2_CH2_HC (hc_ct_ct)
96 5 38 41 43 # CH2_CH2_HC (hc_ct_ct)
97 5 39 38 41 # HC_CH2_CH2 (hc_ct_ct)
98 5 40 38 41 # HC_CH2_CH2 (hc_ct_ct)
99 5 41 44 45 # CH2_CH2_HC (hc_ct_ct)
100 5 41 44 46 # CH2_CH2_HC (hc_ct_ct)
101 5 42 41 44 # HC_CH2_CH2 (hc_ct_ct)
102 5 43 41 44 # HC_CH2_CH2 (hc_ct_ct)
103 5 44 47 48 # CH2_CH2_HC (hc_ct_ct)
104 5 44 47 49 # CH2_CH2_HC (hc_ct_ct)
105 5 45 44 47 # HC_CH2_CH2 (hc_ct_ct)
106 5 46 44 47 # HC_CH2_CH2 (hc_ct_ct)
107 5 47 50 51 # CH2_CH2_HC (hc_ct_ct)
108 5 47 50 52 # CH2_CH2_HC (hc_ct_ct)
109 5 48 47 50 # HC_CH2_CH2 (hc_ct_ct)
110 5 49 47 50 # HC_CH2_CH2 (hc_ct_ct)
111 5 50 53 54 # CH2_CT_HCN (hc_ct_ct)
112 5 50 53 55 # CH2_CT_HCN (hc_ct_ct)
113 5 51 50 53 # HC_CH2_CT (hc_ct_ct)
114 5 52 50 53 # HC_CH2_CT (hc_ct_ct)

Dihedrals

1 1 1 5 8 11 # CH3_CH2_CH2_CH2 (ct_ct_ct_ct)
2 2 47 50 53 56 # CH2_CH2_CT_NT (ct_ct_ct_nt)
3 1 5 8 11 14 # CH2_CH2_CH2_CH2 (ct_ct_ct_ct)
4 1 8 11 14 17 # CH2_CH2_CH2_CH2 (ct_ct_ct_ct)
5 1 11 14 17 20 # CH2_CH2_CH2_CH2 (ct_ct_ct_ct)
6 1 14 17 20 23 # CH2_CH2_CH2_CH2 (ct_ct_ct_ct)
7 1 17 20 23 26 # CH2_CH2_CH2_CH2 (ct_ct_ct_ct)
8 1 20 23 26 29 # CH2_CH2_CH2_CH2 (ct_ct_ct_ct)
9 1 23 26 29 32 # CH2_CH2_CH2_CH2 (ct_ct_ct_ct)
10 1 26 29 32 35 # CH2_CH2_CH2_CH2 (ct_ct_ct_ct)
11 1 29 32 35 38 # CH2_CH2_CH2_CH2 (ct_ct_ct_ct)
12 1 32 35 38 41 # CH2_CH2_CH2_CH2 (ct_ct_ct_ct)
13 1 35 38 41 44 # CH2_CH2_CH2_CH2 (ct_ct_ct_ct)
14 1 38 41 44 47 # CH2_CH2_CH2_CH2 (ct_ct_ct_ct)
15 1 41 44 47 50 # CH2_CH2_CH2_CH2 (ct_ct_ct_ct)
16 1 44 47 50 53 # CH2_CH2_CH2_CT (ct_ct_ct_ct)
17 3 1 5 8 9 # CH3_CH2_CH2_HC (ct_ct_ct_hc)
18 3 1 5 8 10 # CH3_CH2_CH2_HC (ct_ct_ct_hc)
19 4 51 50 53 56 # HC_CH2_CT_NT (ct_ct_nt_hc)
20 4 52 50 53 56 # HC_CH2_CT_NT (ct_ct_nt_hc)
21 3 2 1 5 8 # HC_CH3_CH2_CH2 (ct_ct_ct_hc)
22 3 3 1 5 8 # HC_CH3_CH2_CH2 (ct_ct_ct_hc)
23 3 4 1 5 8 # HC_CH3_CH2_CH2 (ct_ct_ct_hc)
24 5 50 53 56 57 # CH2_CT_NT_HN (ct_ct_nt_hn)
25 5 50 53 56 58 # CH2_CT_NT_HN (ct_ct_nt_hn)
26 5 50 53 56 59 # CH2_CT_NT_HN (ct_ct_nt_hn)
27 3 5 8 11 12 # CH2_CH2_CH2_HC (ct_ct_ct_hc)
28 3 5 8 11 13 # CH2_CH2_CH2_HC (ct_ct_ct_hc)
29 3 8 11 14 15 # CH2_CH2_CH2_HC (ct_ct_ct_hc)
30 3 8 11 14 16 # CH2_CH2_CH2_HC (ct_ct_ct_hc)
31 3 6 5 8 11 # HC_CH2_CH2_CH2 (ct_ct_ct_hc)
32 3 7 5 8 11 # HC_CH2_CH2_CH2 (ct_ct_ct_hc)
33 3 11 14 17 18 # CH2_CH2_CH2_HC (ct_ct_ct_hc)
34 3 11 14 17 19 # CH2_CH2_CH2_HC (ct_ct_ct_hc)
35 3 9 8 11 14 # HC_CH2_CH2_CH2 (ct_ct_ct_hc)
36 3 10 8 11 14 # HC_CH2_CH2_CH2 (ct_ct_ct_hc)
37 3 14 17 20 21 # CH2_CH2_CH2_HC (ct_ct_ct_hc)
38 3 14 17 20 22 # CH2_CH2_CH2_HC (ct_ct_ct_hc)
39 3 12 11 14 17 # HC_CH2_CH2_CH2 (ct_ct_ct_hc)
40 3 13 11 14 17 # HC_CH2_CH2_CH2 (ct_ct_ct_hc)
41 3 17 20 23 24 # CH2_CH2_CH2_HC (ct_ct_ct_hc)
42 3 17 20 23 25 # CH2_CH2_CH2_HC (ct_ct_ct_hc)
43 3 15 14 17 20 # HC_CH2_CH2_CH2 (ct_ct_ct_hc)
44 3 16 14 17 20 # HC_CH2_CH2_CH2 (ct_ct_ct_hc)
45 3 20 23 26 27 # CH2_CH2_CH2_HC (ct_ct_ct_hc)
46 3 20 23 26 28 # CH2_CH2_CH2_HC (ct_ct_ct_hc)
47 3 18 17 20 23 # HC_CH2_CH2_CH2 (ct_ct_ct_hc)
48 3 19 17 20 23 # HC_CH2_CH2_CH2 (ct_ct_ct_hc)
49 3 23 26 29 30 # CH2_CH2_CH2_HC (ct_ct_ct_hc)
50 3 23 26 29 31 # CH2_CH2_CH2_HC (ct_ct_ct_hc)
51 3 21 20 23 26 # HC_CH2_CH2_CH2 (ct_ct_ct_hc)
52 3 22 20 23 26 # HC_CH2_CH2_CH2 (ct_ct_ct_hc)
53 3 26 29 32 33 # CH2_CH2_CH2_HC (ct_ct_ct_hc)
54 3 26 29 32 34 # CH2_CH2_CH2_HC (ct_ct_ct_hc)
55 3 24 23 26 29 # HC_CH2_CH2_CH2 (ct_ct_ct_hc)
56 3 25 23 26 29 # HC_CH2_CH2_CH2 (ct_ct_ct_hc)
57 3 29 32 35 36 # CH2_CH2_CH2_HC (ct_ct_ct_hc)
58 3 29 32 35 37 # CH2_CH2_CH2_HC (ct_ct_ct_hc)
59 3 27 26 29 32 # HC_CH2_CH2_CH2 (ct_ct_ct_hc)
60 3 28 26 29 32 # HC_CH2_CH2_CH2 (ct_ct_ct_hc)
61 3 32 35 38 39 # CH2_CH2_CH2_HC (ct_ct_ct_hc)
62 3 32 35 38 40 # CH2_CH2_CH2_HC (ct_ct_ct_hc)
63 3 30 29 32 35 # HC_CH2_CH2_CH2 (ct_ct_ct_hc)
64 3 31 29 32 35 # HC_CH2_CH2_CH2 (ct_ct_ct_hc)
65 3 35 38 41 42 # CH2_CH2_CH2_HC (ct_ct_ct_hc)
66 3 35 38 41 43 # CH2_CH2_CH2_HC (ct_ct_ct_hc)
67 3 33 32 35 38 # HC_CH2_CH2_CH2 (ct_ct_ct_hc)
68 3 34 32 35 38 # HC_CH2_CH2_CH2 (ct_ct_ct_hc)
69 3 38 41 44 45 # CH2_CH2_CH2_HC (ct_ct_ct_hc)
70 3 38 41 44 46 # CH2_CH2_CH2_HC (ct_ct_ct_hc)
71 3 36 35 38 41 # HC_CH2_CH2_CH2 (ct_ct_ct_hc)
72 3 37 35 38 41 # HC_CH2_CH2_CH2 (ct_ct_ct_hc)
73 3 41 44 47 48 # CH2_CH2_CH2_HC (ct_ct_ct_hc)
74 3 41 44 47 49 # CH2_CH2_CH2_HC (ct_ct_ct_hc)
75 3 39 38 41 44 # HC_CH2_CH2_CH2 (ct_ct_ct_hc)
76 3 40 38 41 44 # HC_CH2_CH2_CH2 (ct_ct_ct_hc)
77 3 44 47 50 51 # CH2_CH2_CH2_HC (ct_ct_ct_hc)
78 3 44 47 50 52 # CH2_CH2_CH2_HC (ct_ct_ct_hc)
79 3 42 41 44 47 # HC_CH2_CH2_CH2 (ct_ct_ct_hc)
80 3 43 41 44 47 # HC_CH2_CH2_CH2 (ct_ct_ct_hc)
81 3 47 50 53 54 # CH2_CH2_CT_HCN (ct_ct_ct_hc)
82 3 47 50 53 55 # CH2_CH2_CT_HCN (ct_ct_ct_hc)
83 3 45 44 47 50 # HC_CH2_CH2_CH2 (ct_ct_ct_hc)
84 3 46 44 47 50 # HC_CH2_CH2_CH2 (ct_ct_ct_hc)
85 3 48 47 50 53 # HC_CH2_CH2_CT (ct_ct_ct_hc)
86 3 49 47 50 53 # HC_CH2_CH2_CT (ct_ct_ct_hc)
87 6 2 1 5 6 # HC_CH3_CH2_HC (ct_ct_hc_hc)
88 6 2 1 5 7 # HC_CH3_CH2_HC (ct_ct_hc_hc)
89 6 3 1 5 6 # HC_CH3_CH2_HC (ct_ct_hc_hc)
90 6 3 1 5 7 # HC_CH3_CH2_HC (ct_ct_hc_hc)
91 6 4 1 5 6 # HC_CH3_CH2_HC (ct_ct_hc_hc)
92 6 4 1 5 7 # HC_CH3_CH2_HC (ct_ct_hc_hc)
93 7 54 53 56 57 # HCN_CT_NT_HN (ct_nt_hc_hn)
94 7 55 53 56 57 # HCN_CT_NT_HN (ct_nt_hc_hn)
95 7 54 53 56 58 # HCN_CT_NT_HN (ct_nt_hc_hn)
96 7 55 53 56 58 # HCN_CT_NT_HN (ct_nt_hc_hn)
97 7 54 53 56 59 # HCN_CT_NT_HN (ct_nt_hc_hn)
98 7 55 53 56 59 # HCN_CT_NT_HN (ct_nt_hc_hn)
99 6 6 5 8 9 # HC_CH2_CH2_HC (ct_ct_hc_hc)
100 6 6 5 8 10 # HC_CH2_CH2_HC (ct_ct_hc_hc)
101 6 7 5 8 9 # HC_CH2_CH2_HC (ct_ct_hc_hc)
102 6 7 5 8 10 # HC_CH2_CH2_HC (ct_ct_hc_hc)
103 6 9 8 11 12 # HC_CH2_CH2_HC (ct_ct_hc_hc)
104 6 9 8 11 13 # HC_CH2_CH2_HC (ct_ct_hc_hc)
105 6 10 8 11 12 # HC_CH2_CH2_HC (ct_ct_hc_hc)
106 6 10 8 11 13 # HC_CH2_CH2_HC (ct_ct_hc_hc)
107 6 12 11 14 15 # HC_CH2_CH2_HC (ct_ct_hc_hc)
108 6 12 11 14 16 # HC_CH2_CH2_HC (ct_ct_hc_hc)
109 6 13 11 14 15 # HC_CH2_CH2_HC (ct_ct_hc_hc)
110 6 13 11 14 16 # HC_CH2_CH2_HC (ct_ct_hc_hc)
111 6 15 14 17 18 # HC_CH2_CH2_HC (ct_ct_hc_hc)
112 6 15 14 17 19 # HC_CH2_CH2_HC (ct_ct_hc_hc)
113 6 16 14 17 18 # HC_CH2_CH2_HC (ct_ct_hc_hc)
114 6 16 14 17 19 # HC_CH2_CH2_HC (ct_ct_hc_hc)
115 6 18 17 20 21 # HC_CH2_CH2_HC (ct_ct_hc_hc)
116 6 18 17 20 22 # HC_CH2_CH2_HC (ct_ct_hc_hc)
117 6 19 17 20 21 # HC_CH2_CH2_HC (ct_ct_hc_hc)
118 6 19 17 20 22 # HC_CH2_CH2_HC (ct_ct_hc_hc)
119 6 21 20 23 24 # HC_CH2_CH2_HC (ct_ct_hc_hc)
120 6 21 20 23 25 # HC_CH2_CH2_HC (ct_ct_hc_hc)
121 6 22 20 23 24 # HC_CH2_CH2_HC (ct_ct_hc_hc)
122 6 22 20 23 25 # HC_CH2_CH2_HC (ct_ct_hc_hc)
123 6 24 23 26 27 # HC_CH2_CH2_HC (ct_ct_hc_hc)
124 6 24 23 26 28 # HC_CH2_CH2_HC (ct_ct_hc_hc)
125 6 25 23 26 27 # HC_CH2_CH2_HC (ct_ct_hc_hc)
126 6 25 23 26 28 # HC_CH2_CH2_HC (ct_ct_hc_hc)
127 6 27 26 29 30 # HC_CH2_CH2_HC (ct_ct_hc_hc)
128 6 27 26 29 31 # HC_CH2_CH2_HC (ct_ct_hc_hc)
129 6 28 26 29 30 # HC_CH2_CH2_HC (ct_ct_hc_hc)
130 6 28 26 29 31 # HC_CH2_CH2_HC (ct_ct_hc_hc)
131 6 30 29 32 33 # HC_CH2_CH2_HC (ct_ct_hc_hc)
132 6 30 29 32 34 # HC_CH2_CH2_HC (ct_ct_hc_hc)
133 6 31 29 32 33 # HC_CH2_CH2_HC (ct_ct_hc_hc)
134 6 31 29 32 34 # HC_CH2_CH2_HC (ct_ct_hc_hc)
135 6 33 32 35 36 # HC_CH2_CH2_HC (ct_ct_hc_hc)
136 6 33 32 35 37 # HC_CH2_CH2_HC (ct_ct_hc_hc)
137 6 34 32 35 36 # HC_CH2_CH2_HC (ct_ct_hc_hc)
138 6 34 32 35 37 # HC_CH2_CH2_HC (ct_ct_hc_hc)
139 6 36 35 38 39 # HC_CH2_CH2_HC (ct_ct_hc_hc)
140 6 36 35 38 40 # HC_CH2_CH2_HC (ct_ct_hc_hc)
141 6 37 35 38 39 # HC_CH2_CH2_HC (ct_ct_hc_hc)
142 6 37 35 38 40 # HC_CH2_CH2_HC (ct_ct_hc_hc)
143 6 39 38 41 42 # HC_CH2_CH2_HC (ct_ct_hc_hc)
144 6 39 38 41 43 # HC_CH2_CH2_HC (ct_ct_hc_hc)
145 6 40 38 41 42 # HC_CH2_CH2_HC (ct_ct_hc_hc)
146 6 40 38 41 43 # HC_CH2_CH2_HC (ct_ct_hc_hc)
147 6 42 41 44 45 # HC_CH2_CH2_HC (ct_ct_hc_hc)
148 6 42 41 44 46 # HC_CH2_CH2_HC (ct_ct_hc_hc)
149 6 43 41 44 45 # HC_CH2_CH2_HC (ct_ct_hc_hc)
150 6 43 41 44 46 # HC_CH2_CH2_HC (ct_ct_hc_hc)
151 6 45 44 47 48 # HC_CH2_CH2_HC (ct_ct_hc_hc)
152 6 45 44 47 49 # HC_CH2_CH2_HC (ct_ct_hc_hc)
153 6 46 44 47 48 # HC_CH2_CH2_HC (ct_ct_hc_hc)
154 6 46 44 47 49 # HC_CH2_CH2_HC (ct_ct_hc_hc)
155 6 48 47 50 51 # HC_CH2_CH2_HC (ct_ct_hc_hc)
156 6 48 47 50 52 # HC_CH2_CH2_HC (ct_ct_hc_hc)
157 6 49 47 50 51 # HC_CH2_CH2_HC (ct_ct_hc_hc)
158 6 49 47 50 52 # HC_CH2_CH2_HC (ct_ct_hc_hc)
159 6 51 50 53 54 # HC_CH2_CT_HCN (ct_ct_hc_hc)
160 6 51 50 53 55 # HC_CH2_CT_HCN (ct_ct_hc_hc)
161 6 52 50 53 54 # HC_CH2_CT_HCN (ct_ct_hc_hc)
162 6 52 50 53 55 # HC_CH2_CT_HCN (ct_ct_hc_hc)

